# vtk DataFile Version 3.0
vtk output
ASCII
DATASET STRUCTURED_GRID
DIMENSIONS 50 50 2
POINTS 5000 float
0 0 0 0.020408 0 0 0.040816 0 0 
0.061224 0 0 0.081633 0 0 0.102041 0 0 
0.122449 0 0 0.142857 0 0 0.163265 0 0 
0.183673 0 0 0.204082 0 0 0.22449 0 0 
0.244898 0 0 0.265306 0 0 0.285714 0 0 
0.306122 0 0 0.326531 0 0 0.346939 0 0 
0.367347 0 0 0.387755 0 0 0.408163 0 0 
0.428571 0 0 0.44898 0 0 0.469388 0 0 
0.489796 0 0 0.510204 0 0 0.530612 0 0 
0.55102 0 0 0.571429 0 0 0.591837 0 0 
0.612245 0 0 0.632653 0 0 0.653061 0 0 
0.673469 0 0 0.693878 0 0 0.714286 0 0 
0.734694 0 0 0.755102 0 0 0.77551 0 0 
0.795918 0 0 0.816327 0 0 0.836735 0 0 
0.857143 0 0 0.877551 0 0 0.897959 0 0 
0.918367 0 0 0.938776 0 0 0.959184 0 0 
0.979592 0 0 1 0 0 0 0.020408 0 
0.020408 0.020408 0 0.040816 0.020408 0 0.061224 0.020408 0 
0.081633 0.020408 0 0.102041 0.020408 0 0.122449 0.020408 0 
0.142857 0.020408 0 0.163265 0.020408 0 0.183673 0.020408 0 
0.204082 0.020408 0 0.22449 0.020408 0 0.244898 0.020408 0 
0.265306 0.020408 0 0.285714 0.020408 0 0.306122 0.020408 0 
0.326531 0.020408 0 0.346939 0.020408 0 0.367347 0.020408 0 
0.387755 0.020408 0 0.408163 0.020408 0 0.428571 0.020408 0 
0.44898 0.020408 0 0.469388 0.020408 0 0.489796 0.020408 0 
0.510204 0.020408 0 0.530612 0.020408 0 0.55102 0.020408 0 
0.571429 0.020408 0 0.591837 0.020408 0 0.612245 0.020408 0 
0.632653 0.020408 0 0.653061 0.020408 0 0.673469 0.020408 0 
0.693878 0.020408 0 0.714286 0.020408 0 0.734694 0.020408 0 
0.755102 0.020408 0 0.77551 0.020408 0 0.795918 0.020408 0 
0.816327 0.020408 0 0.836735 0.020408 0 0.857143 0.020408 0 
0.877551 0.020408 0 0.897959 0.020408 0 0.918367 0.020408 0 
0.938776 0.020408 0 0.959184 0.020408 0 0.979592 0.020408 0 
1 0.020408 0 0 0.040816 0 0.020408 0.040816 0 
0.040816 0.040816 0 0.061224 0.040816 0 0.081633 0.040816 0 
0.102041 0.040816 0 0.122449 0.040816 0 0.142857 0.040816 0 
0.163265 0.040816 0 0.183673 0.040816 0 0.204082 0.040816 0 
0.22449 0.040816 0 0.244898 0.040816 0 0.265306 0.040816 0 
0.285714 0.040816 0 0.306122 0.040816 0 0.326531 0.040816 0 
0.346939 0.040816 0 0.367347 0.040816 0 0.387755 0.040816 0 
0.408163 0.040816 0 0.428571 0.040816 0 0.44898 0.040816 0 
0.469388 0.040816 0 0.489796 0.040816 0 0.510204 0.040816 0 
0.530612 0.040816 0 0.55102 0.040816 0 0.571429 0.040816 0 
0.591837 0.040816 0 0.612245 0.040816 0 0.632653 0.040816 0 
0.653061 0.040816 0 0.673469 0.040816 0 0.693878 0.040816 0 
0.714286 0.040816 0 0.734694 0.040816 0 0.755102 0.040816 0 
0.77551 0.040816 0 0.795918 0.040816 0 0.816327 0.040816 0 
0.836735 0.040816 0 0.857143 0.040816 0 0.877551 0.040816 0 
0.897959 0.040816 0 0.918367 0.040816 0 0.938776 0.040816 0 
0.959184 0.040816 0 0.979592 0.040816 0 1 0.040816 0 
0 0.061224 0 0.020408 0.061224 0 0.040816 0.061224 0 
0.061224 0.061224 0 0.081633 0.061224 0 0.102041 0.061224 0 
0.122449 0.061224 0 0.142857 0.061224 0 0.163265 0.061224 0 
0.183673 0.061224 0 0.204082 0.061224 0 0.22449 0.061224 0 
0.244898 0.061224 0 0.265306 0.061224 0 0.285714 0.061224 0 
0.306122 0.061224 0 0.326531 0.061224 0 0.346939 0.061224 0 
0.367347 0.061224 0 0.387755 0.061224 0 0.408163 0.061224 0 
0.428571 0.061224 0 0.44898 0.061224 0 0.469388 0.061224 0 
0.489796 0.061224 0 0.510204 0.061224 0 0.530612 0.061224 0 
0.55102 0.061224 0 0.571429 0.061224 0 0.591837 0.061224 0 
0.612245 0.061224 0 0.632653 0.061224 0 0.653061 0.061224 0 
0.673469 0.061224 0 0.693878 0.061224 0 0.714286 0.061224 0 
0.734694 0.061224 0 0.755102 0.061224 0 0.77551 0.061224 0 
0.795918 0.061224 0 0.816327 0.061224 0 0.836735 0.061224 0 
0.857143 0.061224 0 0.877551 0.061224 0 0.897959 0.061224 0 
0.918367 0.061224 0 0.938776 0.061224 0 0.959184 0.061224 0 
0.979592 0.061224 0 1 0.061224 0 0 0.081633 0 
0.020408 0.081633 0 0.040816 0.081633 0 0.061224 0.081633 0 
0.081633 0.081633 0 0.102041 0.081633 0 0.122449 0.081633 0 
0.142857 0.081633 0 0.163265 0.081633 0 0.183673 0.081633 0 
0.204082 0.081633 0 0.22449 0.081633 0 0.244898 0.081633 0 
0.265306 0.081633 0 0.285714 0.081633 0 0.306122 0.081633 0 
0.326531 0.081633 0 0.346939 0.081633 0 0.367347 0.081633 0 
0.387755 0.081633 0 0.408163 0.081633 0 0.428571 0.081633 0 
0.44898 0.081633 0 0.469388 0.081633 0 0.489796 0.081633 0 
0.510204 0.081633 0 0.530612 0.081633 0 0.55102 0.081633 0 
0.571429 0.081633 0 0.591837 0.081633 0 0.612245 0.081633 0 
0.632653 0.081633 0 0.653061 0.081633 0 0.673469 0.081633 0 
0.693878 0.081633 0 0.714286 0.081633 0 0.734694 0.081633 0 
0.755102 0.081633 0 0.77551 0.081633 0 0.795918 0.081633 0 
0.816327 0.081633 0 0.836735 0.081633 0 0.857143 0.081633 0 
0.877551 0.081633 0 0.897959 0.081633 0 0.918367 0.081633 0 
0.938776 0.081633 0 0.959184 0.081633 0 0.979592 0.081633 0 
1 0.081633 0 0 0.102041 0 0.020408 0.102041 0 
0.040816 0.102041 0 0.061224 0.102041 0 0.081633 0.102041 0 
0.102041 0.102041 0 0.122449 0.102041 0 0.142857 0.102041 0 
0.163265 0.102041 0 0.183673 0.102041 0 0.204082 0.102041 0 
0.22449 0.102041 0 0.244898 0.102041 0 0.265306 0.102041 0 
0.285714 0.102041 0 0.306122 0.102041 0 0.326531 0.102041 0 
0.346939 0.102041 0 0.367347 0.102041 0 0.387755 0.102041 0 
0.408163 0.102041 0 0.428571 0.102041 0 0.44898 0.102041 0 
0.469388 0.102041 0 0.489796 0.102041 0 0.510204 0.102041 0 
0.530612 0.102041 0 0.55102 0.102041 0 0.571429 0.102041 0 
0.591837 0.102041 0 0.612245 0.102041 0 0.632653 0.102041 0 
0.653061 0.102041 0 0.673469 0.102041 0 0.693878 0.102041 0 
0.714286 0.102041 0 0.734694 0.102041 0 0.755102 0.102041 0 
0.77551 0.102041 0 0.795918 0.102041 0 0.816327 0.102041 0 
0.836735 0.102041 0 0.857143 0.102041 0 0.877551 0.102041 0 
0.897959 0.102041 0 0.918367 0.102041 0 0.938776 0.102041 0 
0.959184 0.102041 0 0.979592 0.102041 0 1 0.102041 0 
0 0.122449 0 0.020408 0.122449 0 0.040816 0.122449 0 
0.061224 0.122449 0 0.081633 0.122449 0 0.102041 0.122449 0 
0.122449 0.122449 0 0.142857 0.122449 0 0.163265 0.122449 0 
0.183673 0.122449 0 0.204082 0.122449 0 0.22449 0.122449 0 
0.244898 0.122449 0 0.265306 0.122449 0 0.285714 0.122449 0 
0.306122 0.122449 0 0.326531 0.122449 0 0.346939 0.122449 0 
0.367347 0.122449 0 0.387755 0.122449 0 0.408163 0.122449 0 
0.428571 0.122449 0 0.44898 0.122449 0 0.469388 0.122449 0 
0.489796 0.122449 0 0.510204 0.122449 0 0.530612 0.122449 0 
0.55102 0.122449 0 0.571429 0.122449 0 0.591837 0.122449 0 
0.612245 0.122449 0 0.632653 0.122449 0 0.653061 0.122449 0 
0.673469 0.122449 0 0.693878 0.122449 0 0.714286 0.122449 0 
0.734694 0.122449 0 0.755102 0.122449 0 0.77551 0.122449 0 
0.795918 0.122449 0 0.816327 0.122449 0 0.836735 0.122449 0 
0.857143 0.122449 0 0.877551 0.122449 0 0.897959 0.122449 0 
0.918367 0.122449 0 0.938776 0.122449 0 0.959184 0.122449 0 
0.979592 0.122449 0 1 0.122449 0 0 0.142857 0 
0.020408 0.142857 0 0.040816 0.142857 0 0.061224 0.142857 0 
0.081633 0.142857 0 0.102041 0.142857 0 0.122449 0.142857 0 
0.142857 0.142857 0 0.163265 0.142857 0 0.183673 0.142857 0 
0.204082 0.142857 0 0.22449 0.142857 0 0.244898 0.142857 0 
0.265306 0.142857 0 0.285714 0.142857 0 0.306122 0.142857 0 
0.326531 0.142857 0 0.346939 0.142857 0 0.367347 0.142857 0 
0.387755 0.142857 0 0.408163 0.142857 0 0.428571 0.142857 0 
0.44898 0.142857 0 0.469388 0.142857 0 0.489796 0.142857 0 
0.510204 0.142857 0 0.530612 0.142857 0 0.55102 0.142857 0 
0.571429 0.142857 0 0.591837 0.142857 0 0.612245 0.142857 0 
0.632653 0.142857 0 0.653061 0.142857 0 0.673469 0.142857 0 
0.693878 0.142857 0 0.714286 0.142857 0 0.734694 0.142857 0 
0.755102 0.142857 0 0.77551 0.142857 0 0.795918 0.142857 0 
0.816327 0.142857 0 0.836735 0.142857 0 0.857143 0.142857 0 
0.877551 0.142857 0 0.897959 0.142857 0 0.918367 0.142857 0 
0.938776 0.142857 0 0.959184 0.142857 0 0.979592 0.142857 0 
1 0.142857 0 0 0.163265 0 0.020408 0.163265 0 
0.040816 0.163265 0 0.061224 0.163265 0 0.081633 0.163265 0 
0.102041 0.163265 0 0.122449 0.163265 0 0.142857 0.163265 0 
0.163265 0.163265 0 0.183673 0.163265 0 0.204082 0.163265 0 
0.22449 0.163265 0 0.244898 0.163265 0 0.265306 0.163265 0 
0.285714 0.163265 0 0.306122 0.163265 0 0.326531 0.163265 0 
0.346939 0.163265 0 0.367347 0.163265 0 0.387755 0.163265 0 
0.408163 0.163265 0 0.428571 0.163265 0 0.44898 0.163265 0 
0.469388 0.163265 0 0.489796 0.163265 0 0.510204 0.163265 0 
0.530612 0.163265 0 0.55102 0.163265 0 0.571429 0.163265 0 
0.591837 0.163265 0 0.612245 0.163265 0 0.632653 0.163265 0 
0.653061 0.163265 0 0.673469 0.163265 0 0.693878 0.163265 0 
0.714286 0.163265 0 0.734694 0.163265 0 0.755102 0.163265 0 
0.77551 0.163265 0 0.795918 0.163265 0 0.816327 0.163265 0 
0.836735 0.163265 0 0.857143 0.163265 0 0.877551 0.163265 0 
0.897959 0.163265 0 0.918367 0.163265 0 0.938776 0.163265 0 
0.959184 0.163265 0 0.979592 0.163265 0 1 0.163265 0 
0 0.183673 0 0.020408 0.183673 0 0.040816 0.183673 0 
0.061224 0.183673 0 0.081633 0.183673 0 0.102041 0.183673 0 
0.122449 0.183673 0 0.142857 0.183673 0 0.163265 0.183673 0 
0.183673 0.183673 0 0.204082 0.183673 0 0.22449 0.183673 0 
0.244898 0.183673 0 0.265306 0.183673 0 0.285714 0.183673 0 
0.306122 0.183673 0 0.326531 0.183673 0 0.346939 0.183673 0 
0.367347 0.183673 0 0.387755 0.183673 0 0.408163 0.183673 0 
0.428571 0.183673 0 0.44898 0.183673 0 0.469388 0.183673 0 
0.489796 0.183673 0 0.510204 0.183673 0 0.530612 0.183673 0 
0.55102 0.183673 0 0.571429 0.183673 0 0.591837 0.183673 0 
0.612245 0.183673 0 0.632653 0.183673 0 0.653061 0.183673 0 
0.673469 0.183673 0 0.693878 0.183673 0 0.714286 0.183673 0 
0.734694 0.183673 0 0.755102 0.183673 0 0.77551 0.183673 0 
0.795918 0.183673 0 0.816327 0.183673 0 0.836735 0.183673 0 
0.857143 0.183673 0 0.877551 0.183673 0 0.897959 0.183673 0 
0.918367 0.183673 0 0.938776 0.183673 0 0.959184 0.183673 0 
0.979592 0.183673 0 1 0.183673 0 0 0.204082 0 
0.020408 0.204082 0 0.040816 0.204082 0 0.061224 0.204082 0 
0.081633 0.204082 0 0.102041 0.204082 0 0.122449 0.204082 0 
0.142857 0.204082 0 0.163265 0.204082 0 0.183673 0.204082 0 
0.204082 0.204082 0 0.22449 0.204082 0 0.244898 0.204082 0 
[...]
POINT_DATA 5000
SCALARS Result double
LOOKUP_TABLE default
3.78275e-07 5.57235e-07 7.87396e-07 1.06729e-06 1.38779e-06 1.7312e-06 2.07211e-06 2.3803e-06 2.62548e-06 
2.78302e-06 2.83942e-06 2.79618e-06 2.67095e-06 2.49551e-06 2.31089e-06 2.16057e-06 2.08299e-06 2.10469e-06 
2.23522e-06 2.46489e-06 2.7655e-06 3.09449e-06 3.40176e-06 3.63818e-06 3.76442e-06 3.75801e-06 3.61738e-06 
3.36174e-06 3.02708e-06 2.65919e-06 2.3052e-06 2.00561e-06 1.78819e-06 1.6646e-06 1.63005e-06 1.66565e-06 
1.74276e-06 1.82862e-06 1.89204e-06 1.90853e-06 1.86369e-06 1.75461e-06 1.58898e-06 1.3824e-06 1.15458e-06 
9.25393e-07 7.11607e-07 5.24964e-07 3.71502e-07 2.52188e-07 1.02782e-06 1.51408e-06 2.13946e-06 2.89996e-06 
3.77082e-06 4.70389e-06 5.63018e-06 6.46758e-06 7.13377e-06 7.56181e-06 7.71506e-06 7.59758e-06 7.25732e-06 
6.78062e-06 6.27898e-06 5.87056e-06 5.65977e-06 5.7187e-06 6.07338e-06 6.69741e-06 7.51422e-06 8.40813e-06 
9.24302e-06 9.8854e-06 1.02284e-05 1.0211e-05 9.82888e-06 9.13427e-06 8.22496e-06 7.22537e-06 6.26354e-06 
5.44951e-06 4.85874e-06 4.52292e-06 4.42905e-06 4.52578e-06 4.73532e-06 4.96859e-06 5.14092e-06 5.18572e-06 
5.06388e-06 4.76749e-06 4.31746e-06 3.75616e-06 3.13715e-06 2.51441e-06 1.93353e-06 1.42639e-06 1.00942e-06 
6.85227e-07 2.6788e-06 3.94613e-06 5.57604e-06 7.55812e-06 9.82784e-06 1.22597e-05 1.46739e-05 1.68564e-05 
1.85927e-05 1.97083e-05 2.01077e-05 1.98015e-05 1.89147e-05 1.76723e-05 1.63648e-05 1.53004e-05 1.4751e-05 
1.49046e-05 1.5829e-05 1.74554e-05 1.95842e-05 2.1914e-05 2.409e-05 2.57642e-05 2.66582e-05 2.66128e-05 
2.56169e-05 2.38066e-05 2.14366e-05 1.88314e-05 1.63246e-05 1.4203e-05 1.26633e-05 1.1788e-05 1.15434e-05 
1.17955e-05 1.23416e-05 1.29496e-05 1.33987e-05 1.35155e-05 1.31979e-05 1.24254e-05 1.12525e-05 9.78964e-06 
8.17633e-06 6.55328e-06 5.03933e-06 3.71759e-06 2.63084e-06 1.7859e-06 6.69691e-06 9.8652e-06 1.39399e-05 
1.88951e-05 2.45693e-05 3.06488e-05 3.66842e-05 4.21404e-05 4.64811e-05 4.927e-05 5.02685e-05 4.95031e-05 
4.72861e-05 4.41801e-05 4.09116e-05 3.82504e-05 3.6877e-05 3.7261e-05 3.9572e-05 4.36379e-05 4.896e-05 
5.47844e-05 6.02242e-05 6.44097e-05 6.66446e-05 6.65312e-05 6.40415e-05 5.95156e-05 5.35909e-05 4.70779e-05 
4.08109e-05 3.55071e-05 3.16578e-05 2.94697e-05 2.88581e-05 2.94883e-05 3.08536e-05 3.23735e-05 3.34964e-05 
3.37883e-05 3.29944e-05 3.10632e-05 2.8131e-05 2.44738e-05 2.04406e-05 1.6383e-05 1.25982e-05 9.29387e-06 
6.57702e-06 4.46469e-06 1.60598e-05 2.36576e-05 3.34292e-05 4.5312e-05 5.89193e-05 7.34986e-05 8.7972e-05 
0.000101056 0.000111466 0.000118154 0.000120548 0.000118713 0.000113396 0.000105948 9.81095e-05 9.17279e-05 
8.84343e-05 8.93552e-05 9.48971e-05 0.000104648 0.00011741 0.000131378 0.000144423 0.00015446 0.00015982 
0.000159548 0.000153577 0.000142724 0.000128516 0.000112897 9.78682e-05 8.5149e-05 7.59182e-05 7.0671e-05 
6.92042e-05 7.07156e-05 7.39897e-05 7.76345e-05 8.03272e-05 8.10272e-05 7.91235e-05 7.44924e-05 6.74606e-05 
5.86903e-05 4.90183e-05 3.92879e-05 3.02115e-05 2.22875e-05 1.57723e-05 1.07067e-05 3.69401e-05 5.44163e-05 
7.68925e-05 0.000104225 0.000135524 0.000169059 0.00020235 0.000232446 0.000256389 0.000271773 0.000277281 
0.000273058 0.00026083 0.000243697 0.000225668 0.000210989 0.000203413 0.000205531 0.000218279 0.000240706 
0.000270063 0.00030219 0.000332196 0.000355283 0.000367611 0.000366985 0.000353252 0.000328287 0.000295606 
0.000259681 0.000225113 0.000195856 0.000174624 0.000162555 0.000159181 0.000162657 0.000170188 0.000178572 
0.000184766 0.000186376 0.000181997 0.000171344 0.00015517 0.000134997 0.00011275 9.03684e-05 6.94913e-05 
5.12648e-05 3.62787e-05 2.46272e-05 8.1502e-05 0.00012006 0.00016965 0.000229955 0.00029901 0.000372999 
0.00044645 0.000512853 0.000565679 0.000599621 0.000611773 0.000602457 0.000575476 0.000537676 0.000497897 
0.000465511 0.000448796 0.00045347 0.000481595 0.000531078 0.000595847 0.000666731 0.000732934 0.000783872 
0.00081107 0.000809691 0.00077939 0.000724311 0.000652205 0.000572943 0.000496673 0.000432124 0.000385278 
0.000358649 0.000351205 0.000358876 0.000375491 0.000393989 0.000407654 0.000411206 0.000401545 0.000378042 
0.000342357 0.000297848 0.000248764 0.000199383 0.000153321 0.000113107 8.00429e-05 5.43357e-05 0.000172485 
0.000254087 0.000359035 0.000486659 0.000632804 0.000789388 0.000944834 0.00108536 0.00119716 0.00126899 
0.00129471 0.001275 0.0012179 0.0011379 0.00105371 0.000985173 0.000949799 0.00095969 0.00101921 
0.00112393 0.00126101 0.00141102 0.00155113 0.00165893 0.00171649 0.00171357 0.00164944 0.00153288 
0.00138028 0.00121253 0.00105112 0.000914515 0.000815374 0.000759018 0.000743265 0.000759498 0.000794662 
0.000833808 0.000862728 0.000870246 0.0008498 0.000800061 0.000724538 0.000630344 0.000526465 0.000421958 
0.000324477 0.000239372 0.000169397 0.000114992 0.000350143 0.000515795 0.000728839 0.000987915 0.00128459 
0.00160245 0.00191801 0.00220328 0.00243023 0.00257605 0.00262826 0.00258823 0.00247232 0.00230992 
0.00213903 0.0019999 0.00192809 0.00194817 0.00206899 0.00228158 0.00255984 0.00286436 0.00314878 
0.00336762 0.00348446 0.00347854 0.00334836 0.00311173 0.00280196 0.00246144 0.00213377 0.00185646 
0.00165521 0.0015408 0.00150882 0.00154178 0.00161316 0.00169263 0.00175133 0.0017666 0.00172509 
0.00162412 0.00147081 0.0012796 0.00106872 0.000856574 0.000658686 0.000485923 0.000343875 0.000233433 
0.000681793 0.00100435 0.00141918 0.00192365 0.00250133 0.00312027 0.00373472 0.0042902 0.0047321 
0.00501604 0.0051177 0.00503977 0.00481406 0.00449785 0.00416509 0.00389417 0.00375434 0.00379344 
0.00402871 0.00444265 0.00498447 0.00557744 0.00613125 0.00655737 0.00678489 0.00677335 0.00651988 
0.00605912 0.00545593 0.00479287 0.00415485 0.00361487 0.00322299 0.00300023 0.00293796 0.00300212 
0.00314112 0.00329586 0.00341017 0.00343989 0.00335907 0.00316246 0.00286394 0.00249161 0.002081 
0.00166791 0.00128258 0.000946182 0.000669587 0.000454537 0.00127346 0.00187593 0.00265076 0.00359301 
0.004672 0.00582807 0.00697573 0.00801326 0.00883866 0.009369 0.00955887 0.00941332 0.00899175 
0.00840112 0.00777959 0.00727355 0.00701239 0.00708541 0.00752486 0.00829802 0.00931004 0.0104176 
0.011452 0.0122479 0.0126729 0.0126513 0.0121779 0.0113173 0.0101906 0.00895216 0.00776045 
0.00675189 0.00601992 0.00560385 0.00548754 0.00560739 0.005867 0.00615602 0.00636954 0.00642505 
0.00627409 0.00590687 0.00534928 0.00465384 0.0038869 0.00311533 0.00239562 0.00176729 0.00125066 
0.000848988 0.00228147 0.00336083 0.00474899 0.00643709 0.00837016 0.0104413 0.0124974 0.0143562 
0.015835 0.0167851 0.0171253 0.0168645 0.0161092 0.0150511 0.0139376 0.013031 0.0125631 
0.0126939 0.0134812 0.0148664 0.0166795 0.0186637 0.0205169 0.0219428 0.0227042 0.0226656 
0.0218174 0.0202755 0.0182571 0.0160383 0.0139033 0.0120964 0.010785 0.0100396 0.00983125 
0.010046 0.0105111 0.0110289 0.0114114 0.0115108 0.0112404 0.0105825 0.00958354 0.00833763 
0.0069636 0.00558129 0.00429189 0.00316619 0.00224063 0.00152101 0.00392065 0.0057755 0.00816102 
0.011062 0.0143839 0.0179431 0.0214765 0.0246708 0.027212 0.0288448 0.0294293 0.0289812 
0.0276833 0.0258649 0.0239514 0.0223934 0.0215893 0.0218142 0.0231671 0.0255475 0.0286632 
0.0320731 0.0352578 0.0377082 0.0390165 0.0389502 0.0374926 0.034843 0.0313744 0.0275614 
0.0238925 0.0207873 0.0185338 0.0172528 0.0168947 0.0172637 0.018063 0.0189528 0.0196102 
0.0197811 0.0193163 0.0181857 0.0164691 0.014328 0.0119668 0.0095913 0.0073755 0.00544102 
0.00385046 0.00261382 0.00646269 0.00952017 0.0134524 0.0182342 0.02371 0.0295769 0.0354012 
0.0406666 0.0448554 0.0475469 0.0485105 0.0477718 0.0456323 0.0426349 0.0394807 0.0369127 
0.0355873 0.0359578 0.038188 0.0421118 0.0472476 0.0528683 0.0581179 0.062157 0.0643138 
0.0642044 0.0618017 0.0574341 0.0517166 0.0454314 0.0393836 0.0342652 0.0305506 0.028439 
0.0278488 0.028457 0.0297745 0.0312413 0.0323249 0.0326066 0.0318405 0.0299768 0.0271471 
0.0236179 0.0197257 0.01581 0.0121576 0.00896882 0.00634699 0.00430854 0.0102184 0.0150526 
0.02127 0.0288307 0.0374886 0.046765 0.0559739 0.0642992 0.0709222 0.0751777 0.0767013 
0.0755334 0.0721506 0.0674113 0.0624241 0.0583637 0.0562681 0.056854 0.0603802 0.0665841 
0.0747046 0.0835917 0.091892 0.0982783 0.101688 0.101515 0.0977165 0.0908108 0.0817706 
0.071833 0.0622706 0.0541778 0.0483044 0.0449658 0.0440326 0.0449942 0.0470774 0.0493965 
0.0511098 0.0515552 0.0503439 0.0473972 0.0429231 0.0373429 0.0311889 0.0249977 0.0192227 
0.0141809 0.0100354 0.00681236 0.0154975 0.0228293 0.0322587 0.0437255 0.0568563 0.0709251 
0.0848917 0.097518 0.107563 0.114017 0.116327 0.114556 0.109426 0.102238 0.0946743 
0.0885161 0.0853378 0.0862265 0.0915744 0.100983 0.113299 0.126778 0.139366 0.149052 
0.154224 0.153961 0.1482 0.137726 0.124016 0.108944 0.0944415 0.0821676 0.0732599 
0.0681965 0.0667811 0.0682396 0.071399 0.0749162 0.0775146 0.0781901 0.076353 0.0718841 
0.0650985 0.0566353 0.0473019 0.0379122 0.0291537 0.0215071 0.01522 0.0103318 0.0225455 
0.0332117 0.0469295 0.0636112 0.0827138 0.103181 0.123499 0.141868 0.156481 0.16587 
0.169232 0.166655 0.159191 0.148735 0.137731 0.128772 0.124148 0.125441 0.133221 
0.146909 0.164826 0.184434 0.202748 0.216839 0.224362 0.223981 0.215599 0.200362 
0.180416 0.15849 0.137392 0.119536 0.106578 0.0992113 0.0971522 0.099274 0.10387 
0.108987 0.112767 0.11375 0.111077 0.104576 0.0947044 0.0823923 0.0688142 0.0551542 
0.0424124 0.0312883 0.0221419 0.0150306 0.0314603 0.0463441 0.0654861 0.088764 0.11542 
0.14398 0.172333 0.197964 0.218356 0.231457 0.236148 0.232552 0.222138 0.207546 
0.192192 0.17969 0.173238 0.175042 0.185899 0.204999 0.230001 0.257362 0.282917 
0.30258 0.313078 0.312546 0.30085 0.279589 0.251756 0.22116 0.191719 0.166803 
0.14872 0.138441 0.135568 0.138528 0.144942 0.152082 0.157357 0.158728 0.154999 
0.145927 0.132152 0.114971 0.0960243 0.076963 0.0591828 0.0436601 0.0308971 0.0209739 
0.0421093 0.0620311 0.0876525 0.11881 0.154489 0.192716 0.230666 0.264974 0.292267 
0.309804 0.316082 0.311269 0.297329 0.277799 0.257247 0.240514 0.231878 0.234292 
0.248824 0.27439 0.307854 0.344477 0.378682 0.405 0.419053 0.41834 0.402685 
0.374227 0.336972 0.29602 0.256614 0.223264 0.19906 0.185302 0.181456 0.185419 
0.194004 0.203561 0.210621 0.212456 0.207465 0.195322 0.176884 0.153888 0.128528 
0.103014 0.0792156 0.0584386 0.0413554 0.0280734 0.0540637 0.0796411 0.112536 0.152539 
0.198346 0.247426 0.296149 0.340197 0.375238 0.397754 0.405815 0.399635 0.381738 
0.356663 0.330276 0.308793 0.297705 0.300806 0.319462 0.352286 0.39525 0.44227 
0.486186 0.519975 0.538017 0.537102 0.517002 0.480466 0.432635 0.380057 0.329464 
0.286646 0.255571 0.237907 0.232969 0.238057 0.249079 0.261349 0.270414 0.27277 
0.266362 0.250771 0.2271 0.197575 0.165015 0.132259 0.101704 0.0750288 0.0530958 
0.0360431 0.0665803 0.0980792 0.13859 0.187854 0.244266 0.304709 0.364712 0.418957 
0.462112 0.48984 0.499767 0.492157 0.470116 0.439236 0.40674 0.380283 0.366629 
0.370447 0.393422 0.433846 0.486757 0.544663 0.598745 0.640357 0.662576 0.661449 
0.636696 0.591701 0.532797 0.468046 0.40574 0.353009 0.31474 0.292986 0.286905 
0.293171 0.306745 0.321856 0.333019 0.335921 0.328028 0.308829 0.279677 0.243317 
0.203219 0.162879 0.12525 0.092399 0.0653883 0.0443877 0.0786498 0.115859 0.163713 
0.221907 0.288546 0.359946 0.430826 0.494905 0.545882 0.578636 0.590363 0.581374 
0.555337 0.518859 0.480473 0.44922 0.43309 0.4376 0.464741 0.512492 0.574995 
0.643398 0.707284 0.756439 0.782686 0.781355 0.752115 0.698963 0.629381 0.552892 
0.479291 0.417002 0.371795 0.346098 0.338915 0.346317 0.362351 0.380201 0.393388 
0.396816 0.387492 0.364812 0.330376 0.287425 0.240058 0.192405 0.147955 0.109149 
0.0772417 0.0524341 0.0891177 0.131279 0.185503 0.251442 0.326951 0.407853 0.488167 
0.560775 0.618537 0.65565 0.668938 0.658752 0.62925 0.587917 0.544422 0.509009 
0.490733 0.495843 0.526596 0.580703 0.651524 0.729031 0.801421 0.857118 0.886858 
0.88535 0.852218 0.791992 0.713149 0.626479 0.543083 0.472503 0.421279 0.392162 
0.384023 0.39241 0.410578 0.430804 0.445746 0.44963 0.439066 0.413367 0.374347 
0.32568 0.272008 0.218013 0.167647 0.123676 0.0875222 0.0594129 0.0968589 0.142683 
0.201616 0.273284 0.355351 0.443281 0.530572 0.609486 0.672266 0.712603 0.727045 
0.715974 0.683909 0.638986 0.591713 0.553224 0.53336 0.538914 0.572338 0.631145 
0.708119 0.792358 0.871036 0.931572 0.963895 0.962256 0.926246 0.860788 0.775096 
0.680898 0.590258 0.513546 0.457874 0.426227 0.417381 0.426496 0.446243 0.468225 
0.484465 0.488687 0.477205 0.449274 0.406865 0.35397 0.295636 0.236951 0.18221 
0.134419 0.0951248 0.0645738 0.100978 0.148751 0.210191 0.284906 0.370463 0.462133 
0.553136 0.635407 0.700856 0.742909 0.757965 0.746423 0.712995 0.666161 0.616878 
0.576752 0.556043 0.561833 0.596679 0.657987 0.738234 0.826056 0.908079 0.97119 
1.00489 1.00318 0.965637 0.897395 0.80806 0.709856 0.61536 0.535387 0.477346 
0.444354 0.435131 0.444634 0.46522 0.488138 0.505069 0.50947 0.4975 0.468381 
0.424168 0.369024 0.308209 0.247028 0.189959 0.140136 0.0991703 0.06732 0.100978 
0.148751 0.210191 0.284906 0.370463 0.462133 0.553136 0.635406 0.700856 0.742909 
0.757965 0.746423 0.712995 0.666161 0.616878 0.576752 0.556043 0.561833 0.596679 
0.657987 0.738234 0.826056 0.908079 0.97119 1.00489 1.00318 0.965637 0.897395 
0.80806 0.709856 0.61536 0.535387 0.477346 0.444354 0.435131 0.444634 0.46522 
0.488138 0.505069 0.50947 0.4975 0.468381 0.424168 0.369024 0.308209 0.247028 
0.189959 0.140136 0.0991703 0.06732 0.0968589 0.142683 0.201616 0.273284 0.355351 
0.443281 0.530572 0.609486 0.672266 0.712603 0.727045 0.715974 0.683909 0.638986 
0.591713 0.553224 0.53336 0.538914 0.572338 0.631145 0.708119 0.792358 0.871036 
0.931572 0.963895 0.962256 0.926246 0.860788 0.775096 0.680898 0.590258 0.513546 
0.457874 0.426227 0.417381 0.426496 0.446243 0.468225 0.484465 0.488687 0.477205 
0.449274 0.406865 0.35397 0.295636 0.236951 0.18221 0.134419 0.0951248 0.0645738 
0.0891177 0.131279 0.185503 0.251442 0.32695 0.407853 0.488167 0.560775 0.618537 
0.65565 0.668938 0.658752 0.62925 0.587917 0.544422 0.509009 0.490733 0.495843 
0.526596 0.580702 0.651524 0.729031 0.801421 0.857118 0.886858 0.88535 0.852218 
0.791991 0.713149 0.626479 0.543083 0.472502 0.421279 0.392162 0.384023 0.39241 
0.410578 0.430804 0.445746 0.44963 0.439066 0.413367 0.374347 0.32568 0.272008 
0.218013 0.167647 0.123676 0.0875222 0.0594129 0.0786498 0.115859 0.163713 0.221907 
0.288546 0.359946 0.430826 0.494905 0.545882 0.578636 0.590363 0.581374 0.555337 
0.518859 0.480473 0.44922 0.43309 0.4376 0.464741 0.512492 0.574995 0.643398 
0.707284 0.756439 0.782686 0.781355 0.752115 0.698963 0.629381 0.552892 0.479291 
0.417002 0.371795 0.346098 0.338915 0.346317 0.362351 0.380201 0.393388 0.396816 
0.387492 0.364812 0.330376 0.287425 0.240058 0.192405 0.147955 0.109149 0.0772417 
0.0524341 0.0665803 0.0980792 0.13859 0.187854 0.244266 0.304709 0.364712 0.418957 
0.462112 0.48984 0.499767 0.492157 0.470116 0.439236 0.40674 0.380283 0.366629 
0.370447 0.393422 0.433846 0.486757 0.544663 0.598745 0.640357 0.662576 0.661449 
0.636696 0.591701 0.532797 0.468046 0.40574 0.353009 0.31474 0.292986 0.286905 
0.293171 0.306745 0.321856 0.333019 0.335921 0.328028 0.308829 0.279677 0.243317 
0.203219 0.162879 0.12525 0.092399 0.0653883 0.0443877 0.0540637 0.079641 0.112536 
0.152539 0.198346 0.247426 0.296149 0.340197 0.375238 0.397753 0.405814 0.399635 
0.381737 0.356663 0.330276 0.308793 0.297705 0.300805 0.319462 0.352286 0.39525 
0.44227 0.486186 0.519975 0.538017 0.537102 0.517002 0.480466 0.432635 0.380057 
0.329464 0.286646 0.255571 0.237907 0.232969 0.238057 0.249079 0.261349 0.270414 
0.27277 0.266362 0.250771 0.227099 0.197575 0.165015 0.132259 0.101704 0.0750287 
0.0530958 0.0360431 0.0421093 0.0620311 0.0876525 0.11881 0.154489 0.192716 0.230666 
0.264974 0.292267 0.309804 0.316082 0.311269 0.297329 0.277799 0.257247 0.240514 
0.231878 0.234292 0.248824 0.27439 0.307854 0.344477 0.378682 0.405 0.419053 
0.41834 0.402685 0.374227 0.336972 0.29602 0.256614 0.223264 0.19906 0.185302 
0.181456 0.185419 0.194004 0.203561 0.210621 0.212456 0.207465 0.195322 0.176884 
0.153888 0.128528 0.103014 0.0792156 0.0584386 0.0413554 0.0280734 0.0314603 0.0463441 
0.0654861 0.088764 0.11542 0.14398 0.172333 0.197965 0.218356 0.231458 0.236148 
0.232552 0.222138 0.207546 0.192192 0.17969 0.173238 0.175042 0.185899 0.205 
0.230001 0.257362 0.282917 0.30258 0.313079 0.312546 0.30085 0.279589 0.251756 
0.22116 0.191719 0.166803 0.14872 0.138441 0.135568 0.138528 0.144942 0.152082 
0.157357 0.158728 0.154999 0.145927 0.132152 0.114971 0.0960244 0.076963 0.0591828 
0.0436601 0.0308971 0.0209739 0.0225455 0.0332117 0.0469295 0.0636112 0.0827138 0.103181 
0.123499 0.141868 0.156481 0.16587 0.169232 0.166655 0.159191 0.148735 0.137731 
0.128772 0.124148 0.125441 0.133221 0.146909 0.164826 0.184434 0.202748 0.216839 
0.224362 0.223981 0.215599 0.200362 0.180416 0.15849 0.137392 0.119536 0.106578 
0.0992113 0.0971522 0.099274 0.10387 0.108987 0.112767 0.11375 0.111077 0.104576 
0.0947044 0.0823923 0.0688142 0.0551542 0.0424124 0.0312883 0.0221419 0.0150306 0.0154975 
0.0228293 0.0322587 0.0437255 0.0568563 0.0709251 0.0848917 0.097518 0.107563 0.114017 
0.116327 0.114556 0.109426 0.102238 0.0946743 0.0885161 0.0853378 0.0862265 0.0915744 
0.100983 0.113299 0.126778 0.139366 0.149052 0.154224 0.153961 0.1482 0.137726 
0.124016 0.108944 0.0944415 0.0821676 0.0732599 0.0681965 0.0667811 0.0682396 0.071399 
0.0749162 0.0775146 0.0781901 0.076353 0.0718841 0.0650985 0.0566353 0.0473019 0.0379122 
0.0291537 0.0215071 0.01522 0.0103318 0.0102183 0.0150526 0.02127 0.0288307 0.0374886 
0.0467649 0.0559739 0.0642991 0.0709222 0.0751777 0.0767012 0.0755333 0.0721506 0.0674113 
0.0624241 0.0583636 0.056268 0.056854 0.0603801 0.0665841 0.0747046 0.0835916 0.0918919 
0.0982782 0.101688 0.101515 0.0977164 0.0908107 0.0817705 0.0718329 0.0622706 0.0541777 
0.0483044 0.0449658 0.0440325 0.0449942 0.0470774 0.0493965 0.0511098 0.0515552 0.0503439 
0.0473972 0.0429231 0.0373429 0.0311888 0.0249977 0.0192227 0.0141809 0.0100354 0.00681236 
0.00646269 0.00952017 0.0134524 0.0182342 0.02371 0.0295769 0.0354012 0.0406666 0.0448554 
0.0475469 0.0485105 0.0477718 0.0456323 0.0426349 0.0394807 0.0369127 0.0355873 0.0359578 
0.038188 0.0421118 0.0472476 0.0528683 0.0581179 0.062157 0.0643138 0.0642044 0.0618017 
0.0574341 0.0517166 0.0454314 0.0393836 0.0342652 0.0305506 0.028439 0.0278488 0.028457 
0.0297745 0.0312413 0.0323249 0.0326066 0.0318405 0.0299768 0.0271471 0.0236179 0.0197257 
0.01581 0.0121576 0.00896882 0.00634699 0.00430854 0.00392066 0.0057755 0.00816103 0.011062 
0.0143839 0.0179431 0.0214765 0.0246708 0.027212 0.0288448 0.0294293 0.0289812 0.0276833 
0.0258649 0.0239514 0.0223934 0.0215894 0.0218142 0.0231671 0.0255475 0.0286632 0.0320731 
0.0352578 0.0377082 0.0390166 0.0389502 0.0374926 0.034843 0.0313744 0.0275614 0.0238925 
0.0207873 0.0185338 0.0172528 0.0168948 0.0172637 0.018063 0.0189528 0.0196102 0.0197811 
0.0193163 0.0181857 0.0164691 0.014328 0.0119668 0.0095913 0.0073755 0.00544102 0.00385047 
0.00261382 0.00228147 0.00336083 0.00474899 0.00643709 0.00837016 0.0104413 0.0124974 0.0143562 
0.015835 0.0167851 0.0171253 0.0168645 0.0161092 0.0150511 0.0139376 0.013031 0.0125631 
0.0126939 0.0134812 0.0148664 0.0166795 0.0186637 0.0205169 0.0219428 0.0227042 0.0226656 
0.0218174 0.0202755 0.0182571 0.0160383 0.0139033 0.0120964 0.010785 0.0100396 0.00983124 
0.010046 0.0105111 0.0110289 0.0114114 0.0115108 0.0112404 0.0105825 0.00958354 0.00833763 
0.0069636 0.00558129 0.00429189 0.00316619 0.00224063 0.00152101 0.00127346 0.00187593 0.00265076 
0.00359302 0.004672 0.00582807 0.00697573 0.00801326 0.00883866 0.009369 0.00955888 0.00941332 
0.00899175 0.00840112 0.00777959 0.00727356 0.00701239 0.00708541 0.00752486 0.00829803 0.00931004 
0.0104176 0.011452 0.0122479 0.0126729 0.0126513 0.0121779 0.0113173 0.0101906 0.00895216 